                         Program Version 6.1.0  -  RELEASE   -
|  1> %pal
|  2>   nprocs 1
|  3>  end
|  4> ! BLYP cc-pvqz
|  5>
|  6> * xyz 0 1
|  7>  C                  0.00000000    0.00000000   -0.56221066
|  8>  H                  0.00000000   -0.92444767   -1.10110537
|  9>  H                 -0.00000000    0.92444767   -1.10110537
| 10>  O                  0.00000000    0.00000000    0.69618930
| 11> *
| 12>
| 13>                          ****END OF INPUT****

CARTESIAN COORDINATES (ANGSTROEM)
---------------------------------
  C      0.000000    0.000000   -0.562211
  H      0.000000   -0.924448   -1.101105
  H     -0.000000    0.924448   -1.101105
  O      0.000000    0.000000    0.696189

 Total Charge           Charge          ....    0
 Multiplicity           Mult            ....    1
 Number of Electrons    NEL             ....   16
 Basis Dimension        Dim             ....  170

ORBITAL ENERGIES
----------------

  NO   OCC          E(Eh)            E(eV)
   0   2.0000     -18.789452      -511.2870
   1   2.0000     -10.005117      -272.2531
   2   2.0000      -0.943051       -25.6617
   3   2.0000      -0.586541       -15.9606
   4   2.0000      -0.448310       -12.1991
   5   2.0000      -0.390266       -10.6197
   6   2.0000      -0.347680        -9.4609
   7   2.0000      -0.225868        -6.1462
   8   0.0000      -0.104258        -2.8370
   9   0.0000       0.016797         0.4571
  10   0.0000       0.067319         1.8318
  11   0.0000       0.085752         2.3334
  12   0.0000       0.178936         4.8691

MULLIKEN ATOMIC CHARGES
-----------------------
   0 C :    0.275639
   1 H :    0.031646
   2 H :    0.031646
   3 O :   -0.338931
Sum of atomic charges:   -0.0000000

LOEWDIN ATOMIC CHARGES
----------------------
   0 C :   -0.044321
   1 H :   -0.159537
   2 H :   -0.159537
   3 O :    0.363395

  Mayer bond orders larger than 0.100000
B(  0-C ,  1-H ) :   0.8933 B(  0-C ,  2-H ) :   0.8933 B(  0-C ,  3-O ) :   2.0644

FINAL SINGLE POINT ENERGY      -114.529546401178

DIPOLE MOMENT
-------------

Method             : SCF
Type of density    : Electron Density
Multiplicity       :   1
Irrep              :   0
Energy             :  -114.5295464011784645 Eh
Basis              : AO
                                X                 Y                 Z
Electronic contribution:      0.000000000      -0.000000002       1.222566324
Nuclear contribution   :      0.000000000       0.000000000      -2.192175154
                        -----------------------------------------
Total Dipole Moment    :      0.000000000      -0.000000002      -0.969608831
                        -----------------------------------------
Magnitude (a.u.)       :      0.969608831
Magnitude (Debye)      :      2.464549787

Rotational constants in cm-1:             9.784561             1.218135             1.083273
Rotational constants in MHz :        293333.749755         36518.781816         32475.698020

                             ****ORCA TERMINATED NORMALLY****
TOTAL RUN TIME: 0 days 0 hours 0 minutes 2 seconds 31 msec
